#     Step Nr.          Time[fs]        Kin.[a.u.]          Temp[K]            Pot.[a.u.]        Cons Qty[a.u.]        UsedTime[s]
         0            0.000000         0.275037913       300.000000000     -1103.025753687     -1102.750715774         0.000000000
         1            0.500000         0.277015845       302.157447425     -1103.028551074     -1102.750770615       135.747732382
         2            1.000000         0.268468834       292.834719803     -1103.035703237     -1102.750955565        22.164966464
         3            1.500000         0.275983505       301.031412990     -1103.046537973     -1102.751254735        66.397509571
         4            2.000000         0.272336137       297.053014572     -1103.053080835     -1102.751403340        35.919726390
         5            2.500000         0.290177932       316.514108382     -1103.058679789     -1102.751488785        46.890496716
         6            3.000000         0.315905397       344.576564696     -1103.060752919     -1102.751483603        24.153302792
         7            3.500000         0.311402119       339.664574887     -1103.057937159     -1102.751339568        29.217061564
         8            4.000000         0.302791732       330.272720593     -1103.052347839     -1102.751131678        19.186311591
         9            4.500000         0.295983122       322.846170118     -1103.046880817     -1102.750976947        20.997548029
        10            5.000000         0.291035037       317.449002552     -1103.043152696     -1102.750886016        31.201628137
        11            5.500000         0.306763943       334.605443667     -1103.047054841     -1102.750948030        28.117929108
        12            6.000000         0.308861419       336.893284531     -1103.051564449     -1102.751044822        36.908599671
        13            6.500000         0.300693238       327.983769333     -1103.058061906     -1102.751170095        35.819796510
        14            7.000000         0.298350723       325.428650704     -1103.063582150     -1102.751203528        36.936125655
        15            7.500000         0.305675726       333.418461551     -1103.066785412     -1102.751183592        32.003941242
        16            8.000000         0.317771901       346.612470503     -1103.072366165     -1102.751231796        23.715934403
        17            8.500000         0.312629578       341.003437106     -1103.076675209     -1102.751261378        20.362552125
        18            9.000000         0.301301814       328.647579005     -1103.081479829     -1102.751288071        17.242016710
        19            9.500000         0.303750326       331.318315044     -1103.083288618     -1102.751211920        15.276117112
        20           10.000000         0.310376804       338.546203511     -1103.086994964     -1102.751141435        16.561472323
        21           10.500000         0.320571154       349.665780045     -1103.092224778     -1102.751079255        11.708882026
        22           11.000000         0.315290263       343.905601493     -1103.098038533     -1102.751141867        10.509129576
        23           11.500000         0.326226175       355.834042933     -1103.104141210     -1102.751316340        10.476170104
        24           12.000000         0.320189542       349.249532896     -1103.107967653     -1102.751496468        10.429271441
        25           12.500000         0.296605997       323.525575870     -1103.106102632     -1102.751500053        10.420771513
        26           13.000000         0.280892402       306.385834925     -1103.100687060     -1102.751337737        10.361342210
        27           13.500000         0.288950288       315.175044758     -1103.094234576     -1102.751035736        10.049216680
        28           14.000000         0.281518435       307.068686134     -1103.094212091     -1102.750954869        10.387661550
        29           14.500000         0.285588116       311.507726416     -1103.101699478     -1102.751240245        10.594366778
        30           15.000000         0.301924326       329.326589665     -1103.108401460     -1102.751500595        13.285865698
        31           15.500000         0.321329981       350.493477443     -1103.112026854     -1102.751574522        10.042734556
        32           16.000000         0.314284244       342.808277696     -1103.112007737     -1102.751531334        10.459816344
        33           16.500000         0.292528794       319.078331088     -1103.108867507     -1102.751463907        10.436457627
        34           17.000000         0.302137747       329.559380496     -1103.107016604     -1102.751424721        10.389106985
        35           17.500000         0.295850088       322.701061898     -1103.105320070     -1102.751412541        10.530779872
        36           18.000000         0.294650924       321.393063114     -1103.106014860     -1102.751474934        10.423235819
        37           18.500000         0.309298099       337.369597369     -1103.105436728     -1102.751467902        10.333669856
        38           19.000000         0.287268794       313.340940741     -1103.103526064     -1102.751402450        10.917913824
        39           19.500000         0.293930304       320.607040642     -1103.105516639     -1102.751350975        10.902214017
        40           20.000000         0.290061567       316.387182310     -1103.113357232     -1102.751448344        13.334512174
        41           20.500000         0.312670244       341.047792967     -1103.123814896     -1102.751622481         9.865129866
        42           21.000000         0.317188346       345.975952595     -1103.132713997     -1102.751802394         9.822723128
        43           21.500000         0.314469652       343.010513424     -1103.138712670     -1102.751878386         9.562767640
        44           22.000000         0.302289314       329.724703259     -1103.143478980     -1102.751898412         9.497068763
        45           22.500000         0.304577209       332.220245284     -1103.145580860     -1102.751847265         9.421096738
        46           23.000000         0.303533678       331.082004279     -1103.147738272     -1102.751828791         9.516676027
        47           23.500000         0.303302858       330.830235016     -1103.152458712     -1102.751867009         9.380889513
        48           24.000000         0.318050805       346.916687284     -1103.157701756     -1102.751926777         9.437776230
        49           24.500000         0.311177611       339.419690808     -1103.161935737     -1102.751944097         9.831600983
        50           25.000000         0.312811885       341.202289452     -1103.165029421     -1102.751962554        11.895736638
        51           25.500000         0.307965375       335.915917130     -1103.166596887     -1102.751930979         9.623193786
        52           26.000000         0.300398217       327.661973118     -1103.170665640     -1102.751995291         9.448475968
        53           26.500000         0.310910700       339.128555254     -1103.172605008     -1102.752033922         9.575526368
        54           27.000000         0.314024031       342.524448653     -1103.173893927     -1102.752033268         9.625380266
        55           27.500000         0.302227871       329.657683686     -1103.174103373     -1102.751962482         9.837288603
        56           28.000000         0.288093452       314.240442933     -1103.175295458     -1102.751903276         9.719482265
        57           28.500000         0.301752275       329.138923165     -1103.176738782     -1102.751915775         9.564745571
        58           29.000000         0.300293357       327.547596626     -1103.174415301     -1102.751847026         9.661015384
        59           29.500000         0.304297880       331.915563984     -1103.172644910     -1102.751783098         9.686453294
        60           30.000000         0.302357439       329.799011989     -1103.172344911     -1102.751743375        12.153538596
        61           30.500000         0.310066462       338.207695622     -1103.175704603     -1102.751811539         9.604145303
        62           31.000000         0.319714462       348.731335851     -1103.176784934     -1102.751804758         9.287663344
        63           31.500000         0.325436752       354.972972847     -1103.177543288     -1102.751796762         9.547215030
        64           32.000000         0.331139300       361.193076876     -1103.177547880     -1102.751795234         9.389849324
        65           32.500000         0.328983429       358.841541907     -1103.176045033     -1102.751800993         9.612292074
        66           33.000000         0.330921486       360.955494505     -1103.170627700     -1102.751696317         9.284344055
        67           33.500000         0.336746812       367.309519798     -1103.168288963     -1102.751655912         9.231658537
        68           34.000000         0.340439475       371.337324334     -1103.167381588     -1102.751725918         9.495745856
        69           34.500000         0.344937920       376.244042209     -1103.166559253     -1102.751743399         9.515879296
        70           35.000000         0.350042759       381.812190236     -1103.164024145     -1102.751602516        12.145880435
        71           35.500000         0.338055603       368.737094760     -1103.161523308     -1102.751453722         8.590084083
        72           36.000000         0.333246656       363.491694070     -1103.164427462     -1102.751503141         9.567215417
        73           36.500000         0.331148039       361.202609829     -1103.167919948     -1102.751632669         9.554009993
        74           37.000000         0.311091180       339.325416018     -1103.171897375     -1102.751794541         9.371777911
        75           37.500000         0.323159707       352.489267101     -1103.175706577     -1102.751910567         9.442198303
        76           38.000000         0.319549496       348.551397435     -1103.176347962     -1102.751863766         9.447478209
        77           38.500000         0.299974459       327.199755091     -1103.175426981     -1102.751748105         9.612660870
        78           39.000000         0.303982548       331.571612973     -1103.174483701     -1102.751650304         9.393499486
        79           39.500000         0.303352216       330.884072981     -1103.174732662     -1102.751608059         9.478271499
        80           40.000000         0.297337911       324.323917422     -1103.176124421     -1102.751618868        12.076803271
        81           40.500000         0.314280690       342.804401689     -1103.179220449     -1102.751715736         9.692908216
        82           41.000000         0.301016280       328.336130533     -1103.181204812     -1102.751792511         9.492745530
        83           41.500000         0.303746462       331.314100268     -1103.182371768     -1102.751865676         9.878112596
        84           42.000000         0.305320504       333.031000891     -1103.182502630     -1102.751910814         9.497978643
        85           42.500000         0.300694657       327.985317424     -1103.178541747     -1102.751869508         9.553296413
        86           43.000000         0.292956449       319.544799750     -1103.177754711     -1102.751852627         9.553261101
        87           43.500000         0.286358003       312.347487275     -1103.179031139     -1102.751903990         9.606353741
        88           44.000000         0.299709828       326.911106755     -1103.180414056     -1102.751961331         9.274802655
        89           44.500000         0.302558040       330.017819020     -1103.180023639     -1102.751990952         9.397287704
        90           45.000000         0.302014640       329.425101011     -1103.177929074     -1102.751976354        13.132819474
        91           45.500000         0.306248413       334.043125648     -1103.175713979     -1102.751930441         9.588299818
        92           46.000000         0.302511560       329.967119942     -1103.172132504     -1102.751805527         9.608658671
        93           46.500000         0.275689915       300.711177849     -1103.168598841     -1102.751661504         9.477814429
        94           47.000000         0.267264526       291.521110394     -1103.167592809     -1102.751575772         9.577967096
        95           47.500000         0.290052076       316.376829139     -1103.173545048     -1102.751657858         9.320489820
        96           48.000000         0.294238445       320.943148586     -1103.181062708     -1102.751767592         9.383867726
        97           48.500000         0.301057144       328.380703712     -1103.188231698     -1102.751863053         9.416622251
        98           49.000000         0.298424550       325.509178129     -1103.192557434     -1102.751920452         9.371962216
        99           49.500000         0.303645494       331.203968644     -1103.192066581     -1102.751865723         9.430102371
       100           50.000000         0.265643956       289.753459521     -1103.189823072     -1102.751795312        13.303963225
       101           50.500000         0.275307978       300.294576367     -1103.188802781     -1102.751717128         9.046304181
       102           51.000000         0.286027528       311.987018678     -1103.188484600     -1102.751662709         9.228740413
       103           51.500000         0.283848085       309.609772515     -1103.186657713     -1102.751589559         9.212871943
       104           52.000000         0.277420028       302.598313302     -1103.187436065     -1102.751626499         9.357779704
       105           52.500000         0.283508745       309.239634393     -1103.190040142     -1102.751728540         9.312220193
       106           53.000000         0.282581687       308.228438182     -1103.194023038     -1102.751847536         9.403078683
       107           53.500000         0.292055837       318.562449181     -1103.197127217     -1102.751932145         8.428508818
       108           54.000000         0.291830730       318.316911650     -1103.199878708     -1102.752016719         8.146890253
       109           54.500000         0.299638422       326.833220516     -1103.201958446     -1102.752055547         8.727337819
       110           55.000000         0.292455592       318.998485463     -1103.200057763     -1102.751994239        13.136820666
       111           55.500000         0.294243255       320.948394328     -1103.196502984     -1102.751906462         8.604243845
       112           56.000000         0.306828014       334.675330626     -1103.193007619     -1102.751820440         9.584513932
       113           56.500000         0.287170170       313.233365260     -1103.189729182     -1102.751752805         9.701550376
       114           57.000000         0.286420746       312.415924260     -1103.189008840     -1102.751757967         9.504895639
       115           57.500000         0.297540923       324.545354778     -1103.189808453     -1102.751782603         9.119677052
       116           58.000000         0.293772848       320.435293566     -1103.189861118     -1102.751790753         9.226466998
       117           58.500000         0.273701210       298.541979884     -1103.192993462     -1102.751862297         8.470198445
       118           59.000000         0.287982985       314.119950508     -1103.195835321     -1102.751912013         8.697722152
       119           59.500000         0.299065962       326.208804065     -1103.196613569     -1102.751945642         8.769790232
       120           60.000000         0.294857192       321.618051974     -1103.195514292     -1102.751896202        11.763390169
       121           60.500000         0.281490083       307.037761019     -1103.195074030     -1102.751857151         8.688999932
       122           61.000000         0.289573359       315.854664420     -1103.196233724     -1102.751878759         8.333269469
       123           61.500000         0.289768021       316.066994439     -1103.199072892     -1102.751950461         8.507875096
       124           62.000000         0.295786457       322.631655696     -1103.199310396     -1102.751953474         8.539660376
       125           62.500000         0.297394898       324.386076407     -1103.199844098     -1102.751925168         8.514232155
       126           63.000000         0.300460778       327.730211729     -1103.199859561     -1102.751825242         8.480371568
       127           63.500000         0.316277061       344.981960910     -1103.202736064     -1102.751819881         8.661260042
       128           64.000000         0.315077861       343.673922610     -1103.203257196     -1102.751836483         8.738405842
       129           64.500000         0.314793590       343.363851321     -1103.204758633     -1102.751866825         8.456612151
       130           65.000000         0.327529456       357.255608227     -1103.206545732     -1102.751923289        11.220456265
       131           65.500000         0.303098052       330.606841542     -1103.206616685     -1102.751917578         8.557284620
       132           66.000000         0.303300987       330.828195192     -1103.205157953     -1102.751898742         8.484591037
       133           66.500000         0.308609589       336.618598295     -1103.199621244     -1102.751770389         8.302029435
       134           67.000000         0.302045103       329.458328639     -1103.195273847     -1102.751678139         8.369245131
       135           67.500000         0.297951648       324.993356595     -1103.192003303     -1102.751612057         8.558074381
       136           68.000000         0.296235581       323.121541443     -1103.189153948     -1102.751545173         8.758757763
       137           68.500000         0.295209262       322.002074979     -1103.188243275     -1102.751503919         8.775215689
       138           69.000000         0.282400642       308.030961570     -1103.188703076     -1102.751526397         8.531988572
       139           69.500000         0.281253842       306.780079398     -1103.192002189     -1102.751623709         8.374296334
       140           70.000000         0.302472686       329.924718495     -1103.197613159     -1102.751816153        11.271123212
       141           70.500000         0.302740582       330.216928205     -1103.200700415     -1102.751978480         8.546032585
       142           71.000000         0.308470756       336.467165266     -1103.198200900     -1102.752019555         9.445962824
       143           71.500000         0.283121892       308.817670813     -1103.190886179     -1102.751911854         8.445258856
       144           72.000000         0.287912517       314.043086790     -1103.183942586     -1102.751721327         8.161319155
       145           72.500000         0.291431524       317.881474797     -1103.175250557     -1102.751464557         8.712946389
       146           73.000000         0.272143190       296.842555711     -1103.172290020     -1102.751410827        10.037407797
       147           73.500000         0.274808665       299.749946497     -1103.173701956     -1102.751533254         8.372128002
       148           74.000000         0.279324464       304.675593293     -1103.177823722     -1102.751702170         8.379828159
       149           74.500000         0.288928696       315.151493157     -1103.181648077     -1102.751839664         8.528198112
       150           75.000000         0.292239741       318.763044314     -1103.185670118     -1102.751974523        11.872289214
       151           75.500000         0.305516547       333.244836060     -1103.188774548     -1102.752039702         8.546635412
       152           76.000000         0.297787673       324.814499902     -1103.187669380     -1102.751936960         9.537173845
       153           76.500000         0.282931334       308.609817903     -1103.184019018     -1102.751739875         9.738819156
       154           77.000000         0.274103433       298.980708110     -1103.180701385     -1102.751580793         8.539024621
       155           77.500000         0.261755772       285.512389415     -1103.183589631     -1102.751605801         8.490909837
       156           78.000000         0.270260492       294.788986799     -1103.188200757     -1102.751676095         8.735485062
       157           78.500000         0.269671910       294.146985462     -1103.197229790     -1102.751822909         9.749893930
       158           79.000000         0.296271624       323.160855658     -1103.205486425     -1102.751981916         9.624734782
       159           79.500000         0.301613640       328.987706271     -1103.209158013     -1102.752014531         8.378756400
       160           80.000000         0.301547201       328.915237007     -1103.207190309     -1102.751960566        11.901080471
       161           80.500000         0.284598466       310.428257134     -1103.203134448     -1102.751857278         9.459179927
       162           81.000000         0.273915799       298.776044898     -1103.196229245     -1102.751699884         8.492966563
       163           81.500000         0.288958181       315.183654188     -1103.191870758     -1102.751607869         8.386843611
       164           82.000000         0.284316055       310.120214626     -1103.188971727     -1102.751544730         9.414348267
       165           82.500000         0.293636404       320.286466398     -1103.187274406     -1102.751531104         9.284175407
       166           83.000000         0.291009104       317.420716367     -1103.189407582     -1102.751591972         9.410846733
       167           83.500000         0.283160199       308.859454955     -1103.190245043     -1102.751599298         9.399491180
       168           84.000000         0.296472359       323.379808967     -1103.191345885     -1102.751640850         9.573489029
       169           84.500000         0.284540729       310.365280361     -1103.190908122     -1102.751657087         9.494865999
       170           85.000000         0.291649246       318.118956912     -1103.189065810     -1102.751619663        12.821757097
       171           85.500000         0.270893231       295.479152802     -1103.186144777     -1102.751534556         9.638596673
       172           86.000000         0.263804168       287.746695659     -1103.185705975     -1102.751487446         9.414134670
       173           86.500000         0.277045099       302.189356146     -1103.189041769     -1102.751552427         9.759229474
       174           87.000000         0.284299483       310.102139125     -1103.193231359     -1102.751621609         9.384924281
       175           87.500000         0.271181848       295.793964238     -1103.197358638     -1102.751696958         9.073538613
       176           88.000000         0.273332948       298.140294937     -1103.201106406     -1102.751726331         9.326895639
       177           88.500000         0.285364821       311.264165565     -1103.205570233     -1102.751767495         8.282604672
       178           89.000000         0.290611199       316.986698230     -1103.207278037     -1102.751710501         8.534838933
       179           89.500000         0.298730130       325.842492970     -1103.209167085     -1102.751646630         8.796997074
       180           90.000000         0.299326679       326.493183997     -1103.211949735     -1102.751641887        12.435062900
       181           90.500000         0.318503543       347.410515176     -1103.216839557     -1102.751777231         9.161886677
       182           91.000000         0.303918392       331.501634863     -1103.222436047     -1102.751938928         9.112932019
       183           91.500000         0.309848807       337.970286826     -1103.224037852     -1102.751967262         8.318319175
       184           92.000000         0.298186755       325.249801720     -1103.223667897     -1102.751942101         9.282840572
       185           92.500000         0.287644567       313.750818583     -1103.221842878     -1102.751921316         9.292682052
       186           93.000000         0.288629063       314.824665709     -1103.218449786     -1102.751864669         9.249131411
       187           93.500000         0.278205647       303.455234151     -1103.214497432     -1102.751799294         9.337935787
       188           94.000000         0.282370179       307.997733776     -1103.211055806     -1102.751711726         8.690008432
       189           94.500000         0.275227458       300.206748566     -1103.209485404     -1102.751712470         9.540020257
       190           95.000000         0.263816397       287.760033696     -1103.206930504     -1102.751699209        11.838804305
       191           95.500000         0.270688063       295.255364022     -1103.206702997     -1102.751741412         8.351563156
       192           96.000000         0.254575350       277.680281615     -1103.209923037     -1102.751832278         8.261926450
       193           96.500000         0.273859853       298.715021413     -1103.208514526     -1102.751770977         8.774210591
       194           97.000000         0.273149121       297.939783789     -1103.207429659     -1102.751726234         9.553704061
       195           97.500000         0.272841916       297.604697941     -1103.206260022     -1102.751662198         8.333650187
       196           98.000000         0.268848490       293.248833912     -1103.204645474     -1102.751630691         8.281742629
       197           98.500000         0.267674254       291.968025468     -1103.205623573     -1102.751679704         9.677418962
       198           99.000000         0.260917207       284.597716976     -1103.206891820     -1102.751701702         8.670255397
       199           99.500000         0.262871691       286.729588309     -1103.206845548     -1102.751669350         9.617776692
       200          100.000000         0.268042031       292.369181374     -1103.205027328     -1102.751597653        12.138374828
       201          100.500000         0.261105863       284.803495740     -1103.202194234     -1102.751525302         9.269777182
       202          101.000000         0.263262776       287.156167388     -1103.202171802     -1102.751540369         9.380370639
       203          101.500000         0.274474225       299.385153419     -1103.201557606     -1102.751515749         9.395066734
       204          102.000000         0.279893012       305.295742155     -1103.203632319     -1102.751524602         9.530642569
       205          102.500000         0.276705642       301.819090594     -1103.206393659     -1102.751556475         9.308549289
       206          103.000000         0.286335321       312.322746163     -1103.211056354     -1102.751648298         9.507098369
       207          103.500000         0.278728305       304.025327920     -1103.215754291     -1102.751758413         9.396781322
       208          104.000000         0.285407499       311.310717029     -1103.217632843     -1102.751828113         9.542554721
       209          104.500000         0.291542362       318.002372108     -1103.218336055     -1102.751843781         8.691162124
       210          105.000000         0.287675897       313.784992048     -1103.217009276     -1102.751820591        12.475044273
       211          105.500000         0.268577924       292.953711528     -1103.214625796     -1102.751716441         8.602270395
       212          106.000000         0.258522306       281.985458355     -1103.213083382     -1102.751611989         8.493603364
       213          106.500000         0.267126666       291.370738836     -1103.214327309     -1102.751581852         8.480209582
       214          107.000000         0.287136472       313.196609490     -1103.217770382     -1102.751644284         8.291700184
       215          107.500000         0.291354390       317.797340328     -1103.223313816     -1102.751811183         8.574383557
       216          108.000000         0.292327884       318.859187132     -1103.229713747     -1102.751993474         8.526434690
       217          108.500000         0.301471350       328.832501729     -1103.232998922     -1102.752055192         8.633894842
       218          109.000000         0.282991459       308.675399682     -1103.231139106     -1102.751985481         8.526856668
       219          109.500000         0.274039328       298.910785385     -1103.227888693     -1102.751896799         9.354219936
       220          110.000000         0.285565068       311.482586305     -1103.226057972     -1102.751832779        11.177447040
       221          110.500000         0.281538669       307.090756533     -1103.227089680     -1102.751828743         9.492263451
       222          111.000000         0.273806744       298.657092279     -1103.228937989     -1102.751821411         8.638610844
       223          111.500000         0.273846570       298.700533222     -1103.231076305     -1102.751827137         8.704937030
       224          112.000000         0.266148013       290.303264239     -1103.231995456     -1102.751871674         8.345507309
       225          112.500000         0.268722802       293.111737771     -1103.235932832     -1102.751996032         8.703217335
       226          113.000000         0.282174579       307.784381570     -1103.237805393     -1102.752034307         8.480967533
       227          113.500000         0.285214634       311.100347090     -1103.238819833     -1102.751989705         8.502129387