
Host: cs013.hpc.nyu.edu

Timers On : Tue Nov 15 15:21:34 2022
Timers Off: Tue Nov 15 15:21:35 2022

Wall Time:        0.40 seconds

                                                       Time (seconds)
Module                                       User      System        Wall        Calls

--------------------------------------------------------------------------------------

**************************************************************************************
